 Gaussian 09, Revision D.01,
 Gaussian 09:  ES64L-G09RevD.01 24-Apr-2013

 ------------------------------------------------------------
 #HF/6-31G* SCF=tight Test Pop=MK iop(6/33=2) iop(6/42=6) opt
 ------------------------------------------------------------

 ---------------------
 remark line goes here
 ---------------------
 Symbolic Z-matrix:
 Charge =  0 Multiplicity = 1

 SCF Done:  E(RHF) =  -974.477223621     A.U. after   15 cycles
 SCF Done:  E(RHF) =  -974.486941366     A.U. after   13 cycles
 SCF Done:  E(RHF) =  -974.487489446     A.U. after   13 cycles
 SCF Done:  E(RHF) =  -974.488205551     A.U. after   12 cycles
 SCF Done:  E(RHF) =  -974.488294147     A.U. after   13 cycles
 SCF Done:  E(RHF) =  -974.488779415     A.U. after   12 cycles
 SCF Done:  E(RHF) =  -974.489139417     A.U. after   13 cycles
 SCF Done:  E(RHF) =  -974.489267821     A.U. after   13 cycles
 SCF Done:  E(RHF) =  -974.489314017     A.U. after   11 cycles
 SCF Done:  E(RHF) =  -974.489390820     A.U. after   12 cycles
 SCF Done:  E(RHF) =  -974.489677352     A.U. after   12 cycles
 SCF Done:  E(RHF) =  -974.489678996     A.U. after   11 cycles
 SCF Done:  E(RHF) =  -974.489684960     A.U. after   10 cycles
 SCF Done:  E(RHF) =  -974.489688172     A.U. after   11 cycles
 SCF Done:  E(RHF) =  -974.489689146     A.U. after   10 cycles
 SCF Done:  E(RHF) =  -974.489689878     A.U. after   10 cycles
 SCF Done:  E(RHF) =  -974.489690103     A.U. after   10 cycles
 SCF Done:  E(RHF) =  -974.489690157     A.U. after    8 cycles
 SCF Done:  E(RHF) =  -974.489690191     A.U. after    8 cycles
 SCF Done:  E(RHF) =  -974.489690208     A.U. after    8 cycles
 Optimization completed.
    -- Stationary point found.

                         Standard orientation:
 ---------------------------------------------------------------------
 Center     Atomic      Atomic             Coordinates (Angstroms)
 Number     Number       Type             X           Y           Z
 ---------------------------------------------------------------------
      1          1           0        5.123438   -0.554383   -1.287260
      2          6           0        4.164312   -1.052505   -1.276091
      3          1           0        4.339667   -2.121357   -1.203197
      4          1           0        3.638397   -0.852912   -2.202539
      5          6           0        3.393487   -0.598624   -0.054410
      6          8           0        3.944122   -0.296688    0.968557
      7          1           0       -3.664611    1.314945   -0.801902
      8          1           0       -1.798304    2.903723   -0.745564
      9          6           0       -2.698259    1.001894   -0.454699
     10          6           0       -1.635288    1.891876   -0.419681
     11         17           0       -3.810268   -1.436636   -0.060823
     12          1           0        0.421599    3.473063   -0.359253
     13          6           0       -2.493622   -0.292432   -0.031936
     14          6           0       -0.376712    1.515833    0.024883
     15          1           0        1.077525    2.714934    1.076074
     16          6           0        0.745969    2.528120    0.059155
     17          6           0       -1.249152   -0.697054    0.418738
     18          6           0       -0.187067    0.193506    0.449087
     19          1           0       -1.111933   -1.709758    0.750459
     20          1           0        1.607162    2.188167   -0.503825
     21          1           0        1.649740    0.426211    1.557468
     22          6           0        1.161874   -0.301739    0.928014
     23          1           0        1.028861   -1.197208    1.526666
     24          7           0        2.045297   -0.568042   -0.194271
     25          1           0        1.639714   -0.946063   -1.020056
 ---------------------------------------------------------------------

 The electronic state is 1-A.
 Alpha  occ. eigenvalues -- -104.82785 -20.52270 -15.58862 -11.34916 -11.30288
 Alpha  occ. eigenvalues --  -11.27240 -11.25595 -11.25470 -11.25169 -11.25100
 Alpha  occ. eigenvalues --  -11.24574 -11.23493 -11.22912 -10.56118  -8.03058
 Alpha  occ. eigenvalues --   -8.02727  -8.02723  -1.39161  -1.24071  -1.19590
 Alpha  occ. eigenvalues --   -1.13118  -1.05852  -1.03612  -1.01124  -0.94934
 Alpha  occ. eigenvalues --   -0.92092  -0.83987  -0.79902  -0.79505  -0.69730
 Alpha  occ. eigenvalues --   -0.68543  -0.67513  -0.65810  -0.64030  -0.62255
 Alpha  occ. eigenvalues --   -0.59290  -0.58832  -0.58479  -0.57531  -0.56454
 Alpha  occ. eigenvalues --   -0.56208  -0.55358  -0.53824  -0.51768  -0.50040
 Alpha  occ. eigenvalues --   -0.49755  -0.46214  -0.45438  -0.42116  -0.39362
 Alpha  occ. eigenvalues --   -0.35098  -0.32884
 Alpha virt. eigenvalues --    0.12142   0.12896   0.19492   0.20434   0.22136
 Alpha virt. eigenvalues --    0.24253   0.26275   0.27610   0.27866   0.29618
 Alpha virt. eigenvalues --    0.30464   0.31158   0.32077   0.32933   0.34447

 Mulliken charges:
               1
     1  H    0.213920
     2  C   -0.584074
     3  H    0.200892
     4  H    0.172982
     5  C    0.745828
     6  O   -0.605118
     7  H    0.230878
     8  H    0.209635
     9  C   -0.175280
    10  C   -0.226013
    11  Cl  -0.005293
    12  H    0.177260
    13  C   -0.139125
    14  C    0.042083
    15  H    0.187892
    16  C   -0.516065
    17  C   -0.201348
    18  C   -0.032705
    19  H    0.229064
    20  H    0.194616
    21  H    0.226425
    22  C   -0.115383
    23  H    0.186411
    24  N   -0.802499
    25  H    0.385015
 Sum of Mulliken charges =   0.00000

 Dipole moment (field-independent basis, Debye):
    X=             -0.4751    Y=              0.5519    Z=             -2.7698  Tot=              2.8639
 Quadrupole moment (field-independent basis, Debye-Ang):
   XX=           -100.2203   YY=            -77.7110   ZZ=            -85.5666
   XY=             -7.1630   XZ=             -9.9763   YZ=             -0.0140

 ESP charges:
               1
     1  H    0.169273
     2  C   -0.571641
     3  H    0.157720
     4  H    0.130811
     5  C    0.833294
     6  O   -0.631336
     7  H    0.131302
     8  H    0.185604
     9  C    0.002814
    10  C   -0.345557
    11  Cl  -0.115204
    12  H    0.105941
    13  C   -0.087708
    14  C    0.246989
    15  H    0.124077
    16  C   -0.368931
    17  C   -0.013808
    18  C   -0.142878
    19  H    0.125383
    20  H    0.108148
    21  H    0.114878
    22  C    0.024085
    23  H    0.074048
    24  N   -0.586325
    25  H    0.329022
 Sum of ESP charges =   0.00000

 Normal termination of Gaussian 09 at Wed Nov 29 20:27:25 2017.
