 Gaussian 09, Revision D.01,
 Gaussian 09:  ES64L-G09RevD.01 24-Apr-2013

 ------------------------------------------------------------
 #HF/6-31G* SCF=tight Test Pop=MK iop(6/33=2) iop(6/42=6) opt
 ------------------------------------------------------------

 ---------------------
 remark line goes here
 ---------------------
 Symbolic Z-matrix:
 Charge =  0 Multiplicity = 1

 SCF Done:  E(RHF) =  -1394.33471715     A.U. after   15 cycles
 SCF Done:  E(RHF) =  -1394.34487792     A.U. after   13 cycles
 SCF Done:  E(RHF) =  -1394.34618742     A.U. after   13 cycles
 SCF Done:  E(RHF) =  -1394.34737285     A.U. after   13 cycles
 SCF Done:  E(RHF) =  -1394.34855396     A.U. after   15 cycles
 SCF Done:  E(RHF) =  -1394.34921602     A.U. after   15 cycles
 SCF Done:  E(RHF) =  -1394.34894585     A.U. after   13 cycles
 SCF Done:  E(RHF) =  -1394.34935198     A.U. after   12 cycles
 SCF Done:  E(RHF) =  -1394.34937732     A.U. after   11 cycles
 SCF Done:  E(RHF) =  -1394.34938622     A.U. after   11 cycles
 SCF Done:  E(RHF) =  -1394.34943501     A.U. after   12 cycles
 SCF Done:  E(RHF) =  -1394.34944703     A.U. after   11 cycles
 SCF Done:  E(RHF) =  -1394.34945395     A.U. after   12 cycles
 SCF Done:  E(RHF) =  -1394.34945548     A.U. after   10 cycles
 SCF Done:  E(RHF) =  -1394.34945606     A.U. after   10 cycles
 SCF Done:  E(RHF) =  -1394.34945644     A.U. after   10 cycles
 SCF Done:  E(RHF) =  -1394.34945691     A.U. after   10 cycles
 SCF Done:  E(RHF) =  -1394.34945775     A.U. after   11 cycles
 SCF Done:  E(RHF) =  -1394.34945815     A.U. after   10 cycles
 SCF Done:  E(RHF) =  -1394.34945823     A.U. after   10 cycles
 Optimization completed.
    -- Stationary point found.

                         Standard orientation:
 ---------------------------------------------------------------------
 Center     Atomic      Atomic             Coordinates (Angstroms)
 Number     Number       Type             X           Y           Z
 ---------------------------------------------------------------------
      1          1           0        5.006001   -1.644848   -1.099592
      2          6           0        4.083264   -1.135759   -1.338530
      3          1           0        3.537963   -1.701491   -2.085502
      4          1           0        4.326902   -0.164284   -1.756551
      5          6           0        3.292843   -0.932537   -0.063769
      6          8           0        3.825111   -0.797552    1.003143
      7          1           0       -3.669012    1.338864   -0.756977
      8          1           0       -1.691189    2.809127   -0.662443
      9          6           0       -2.722699    0.955448   -0.426954
     10          6           0       -1.611605    1.778477   -0.374360
     11         17           0       -3.979856   -1.417827   -0.102732
     12          6           0       -2.595173   -0.364639   -0.045237
     13          6           0       -0.395223    1.278854    0.052686
     14         17           0        0.962402    2.369863    0.104457
     15          6           0       -1.379302   -0.863035    0.384125
     16          6           0       -0.253823   -0.050601    0.441573
     17          1           0       -1.305161   -1.892313    0.680908
     18          1           0        1.563383    0.027825    1.590449
     19          6           0        1.061520   -0.638110    0.905812
     20          1           0        0.866259   -1.561087    1.440822
     21          7           0        1.947729   -0.875755   -0.215731
     22          1           0        1.547774   -1.054290   -1.107527
 ---------------------------------------------------------------------

 The electronic state is 1-A.
 Alpha  occ. eigenvalues -- -104.84013-104.83764 -20.52106 -15.58913 -11.34792
 Alpha  occ. eigenvalues --  -11.32018 -11.32014 -11.27968 -11.27807 -11.26957
 Alpha  occ. eigenvalues --  -11.26862 -11.26821 -11.23319 -10.57349 -10.57094
 Alpha  occ. eigenvalues --   -8.04289  -8.04033  -8.03952  -8.03949  -8.03696
 Alpha  occ. eigenvalues --   -8.03693  -1.39057  -1.24591  -1.21861  -1.17186
 Alpha  occ. eigenvalues --   -1.10768  -1.07549  -1.01652  -0.99089  -0.94332
 Alpha  occ. eigenvalues --   -0.86279  -0.81692  -0.79849  -0.70943  -0.70167
 Alpha  occ. eigenvalues --   -0.68466  -0.66014  -0.65202  -0.63051  -0.60377
 Alpha  occ. eigenvalues --   -0.59333  -0.58605  -0.58185  -0.57103  -0.55745
 Alpha  occ. eigenvalues --   -0.54046  -0.52373  -0.51873  -0.50654  -0.46728
 Alpha  occ. eigenvalues --   -0.46303  -0.45900  -0.42015  -0.39412  -0.36759
 Alpha  occ. eigenvalues --   -0.34233
 Alpha virt. eigenvalues --    0.10580   0.10934   0.17426   0.20364   0.21188
 Alpha virt. eigenvalues --    0.22450   0.25828   0.27581   0.27957   0.30446
 Alpha virt. eigenvalues --    0.30566   0.31535   0.32258   0.32737   0.34725

 Mulliken charges:
               1
     1  H    0.212859
     2  C   -0.579852
     3  H    0.168052
     4  H    0.205465
     5  C    0.751030
     6  O   -0.604509
     7  H    0.241597
     8  H    0.241966
     9  C   -0.177198
    10  C   -0.171733
    11  Cl   0.012432
    12  C   -0.133650
    13  C   -0.156575
    14  Cl   0.026707
    15  C   -0.197647
    16  C    0.009239
    17  H    0.240620
    18  H    0.242060
    19  C   -0.105263
    20  H    0.189704
    21  N   -0.801593
    22  H    0.386291
 Sum of Mulliken charges =   0.00000

 Dipole moment (field-independent basis, Debye):
    X=             -2.1040    Y=             -0.1751    Z=             -3.0589  Tot=              3.7168
 Quadrupole moment (field-independent basis, Debye-Ang):
   XX=           -102.3772   YY=            -86.8361   ZZ=            -90.6092
   XY=             -5.7402   XZ=            -10.3726   YZ=              0.4776

 ESP charges:
               1
     1  H    0.178993
     2  C   -0.614488
     3  H    0.143386
     4  H    0.170339
     5  C    0.834818
     6  O   -0.612370
     7  H    0.149991
     8  H    0.142280
     9  C   -0.109818
    10  C   -0.068507
    11  Cl  -0.104662
    12  C    0.017917
    13  C   -0.120641
    14  Cl  -0.073225
    15  C   -0.191956
    16  C    0.234111
    17  H    0.156216
    18  H    0.136404
    19  C   -0.126923
    20  H    0.104585
    21  N   -0.575713
    22  H    0.329262
 Sum of ESP charges =   0.00000

 Normal termination of Gaussian 09 at Wed Nov 29 20:24:32 2017.
