 Gaussian 09, Revision D.01,
 Gaussian 09:  ES64L-G09RevD.01 24-Apr-2013

 ------------------------------------------------------------
 #HF/6-31G* SCF=tight Test Pop=MK iop(6/33=2) iop(6/42=6) opt
 ------------------------------------------------------------

 ---------------------
 remark line goes here
 ---------------------
 Symbolic Z-matrix:
 Charge =  0 Multiplicity = 1

 SCF Done:  E(RHF) =  -476.545797312     A.U. after   15 cycles
 SCF Done:  E(RHF) =  -476.553302486     A.U. after   12 cycles
 SCF Done:  E(RHF) =  -476.554021004     A.U. after   12 cycles
 SCF Done:  E(RHF) =  -476.554179326     A.U. after   12 cycles
 SCF Done:  E(RHF) =  -476.554135358     A.U. after   13 cycles
 SCF Done:  E(RHF) =  -476.554478674     A.U. after   12 cycles
 SCF Done:  E(RHF) =  -476.554556967     A.U. after   12 cycles
 SCF Done:  E(RHF) =  -476.554573951     A.U. after   11 cycles
 SCF Done:  E(RHF) =  -476.554587548     A.U. after   11 cycles
 SCF Done:  E(RHF) =  -476.554603881     A.U. after   11 cycles
 SCF Done:  E(RHF) =  -476.554615822     A.U. after   11 cycles
 SCF Done:  E(RHF) =  -476.554636963     A.U. after   11 cycles
 SCF Done:  E(RHF) =  -476.554660250     A.U. after   12 cycles
 SCF Done:  E(RHF) =  -476.554665047     A.U. after   11 cycles
 SCF Done:  E(RHF) =  -476.554670723     A.U. after    9 cycles
 SCF Done:  E(RHF) =  -476.554673234     A.U. after   11 cycles
 SCF Done:  E(RHF) =  -476.554674079     A.U. after   10 cycles
 SCF Done:  E(RHF) =  -476.554674183     A.U. after    9 cycles
 SCF Done:  E(RHF) =  -476.554674199     A.U. after    7 cycles
 SCF Done:  E(RHF) =  -476.554674201     A.U. after    6 cycles
 Optimization completed.
    -- Stationary point found.

                         Standard orientation:
 ---------------------------------------------------------------------
 Center     Atomic      Atomic             Coordinates (Angstroms)
 Number     Number       Type             X           Y           Z
 ---------------------------------------------------------------------
      1          1           0       -4.394714    0.679323    0.804280
      2          6           0       -3.464716    0.268307    1.170239
      3          1           0       -3.654169   -0.672453    1.674044
      4          1           0       -3.044800    0.964905    1.889447
      5          6           0       -2.503652    0.126151    0.008728
      6          8           0       -2.547931    0.861112   -0.941076
      7          1           0        4.128104    1.153185    0.752934
      8          1           0        3.859316   -1.296200    0.786155
      9          6           0        3.201935    0.706281    0.438078
     10          6           0        3.050976   -0.667829    0.456469
     11          1           0        2.266701    2.576117   -0.016271
     12          6           0        2.152696    1.506818    0.006091
     13          6           0        1.854000   -1.239957    0.046630
     14          1           0        1.747370   -2.311503    0.059910
     15          6           0        0.962103    0.934821   -0.402360
     16          6           0        0.799641   -0.448901   -0.383845
     17          1           0        0.152295    1.556103   -0.741255
     18          1           0       -0.839283   -0.649661   -1.756929
     19          1           0       -0.383524   -2.137296   -0.963339
     20          6           0       -0.513021   -1.070979   -0.818558
     21          7           0       -1.594342   -0.870518    0.129920
     22          1           0       -1.533226   -1.346065    1.001363
 ---------------------------------------------------------------------

 The electronic state is 1-A.
 Alpha  occ. eigenvalues --  -20.51895 -15.58379 -11.34645 -11.26489 -11.23610
 Alpha  occ. eigenvalues --  -11.23170 -11.23147 -11.23057 -11.22988 -11.22880
 Alpha  occ. eigenvalues --  -11.22513  -1.38730  -1.23471  -1.15263  -1.04633
 Alpha  occ. eigenvalues --   -1.01336  -1.00213  -0.92514  -0.82741  -0.80677
 Alpha  occ. eigenvalues --   -0.78647  -0.70562  -0.68604  -0.65285  -0.64237
 Alpha  occ. eigenvalues --   -0.62665  -0.61643  -0.58488  -0.58057  -0.57831
 Alpha  occ. eigenvalues --   -0.55935  -0.54230  -0.51886  -0.49703  -0.49016
 Alpha  occ. eigenvalues --   -0.48541  -0.41745  -0.38867  -0.33332  -0.32658
 Alpha virt. eigenvalues --    0.14088   0.14699   0.20629   0.22159   0.24468
 Alpha virt. eigenvalues --    0.26729   0.28932   0.29613   0.30734   0.31980
 Alpha virt. eigenvalues --    0.32362   0.34119   0.34679   0.35091   0.36349

 Mulliken charges:
               1
     1  H    0.213479
     2  C   -0.583951
     3  H    0.172656
     4  H    0.200121
     5  C    0.750405
     6  O   -0.615225
     7  H    0.200663
     8  H    0.200130
     9  C   -0.202934
    10  C   -0.195525
    11  H    0.203417
    12  C   -0.197576
    13  C   -0.232240
    14  H    0.193785
    15  C   -0.225104
    16  C    0.023125
    17  H    0.239022
    18  H    0.234215
    19  H    0.184668
    20  C   -0.161195
    21  N   -0.781812
    22  H    0.379876
 Sum of Mulliken charges =   0.00000

 Dipole moment (field-independent basis, Debye):
    X=              0.8283    Y=             -2.1781    Z=              2.8565  Tot=              3.6865
 Quadrupole moment (field-independent basis, Debye-Ang):
   XX=            -63.3659   YY=            -61.1324   ZZ=            -67.3521
   XY=              4.6458   XZ=             -5.9307   YZ=              1.2291

 ESP charges:
               1
     1  H    0.162831
     2  C   -0.542514
     3  H    0.120380
     4  H    0.153026
     5  C    0.813520
     6  O   -0.616711
     7  H    0.131165
     8  H    0.139949
     9  C   -0.125088
    10  C   -0.153367
    11  H    0.135518
    12  C   -0.134878
    13  C   -0.200981
    14  H    0.143298
    15  C   -0.191397
    16  C    0.103946
    17  H    0.166361
    18  H    0.108424
    19  H    0.065448
    20  C    0.004052
    21  N   -0.641839
    22  H    0.358858
 Sum of ESP charges =   0.00000

 Normal termination of Gaussian 09 at Wed Nov 29 20:28:30 2017.
