 Gaussian 09, Revision D.01,
 Gaussian 09:  ES64L-G09RevD.01 24-Apr-2013

 ------------------------------------------------------------
 #HF/6-31G* SCF=tight Test Pop=MK iop(6/33=2) iop(6/42=6) opt
 ------------------------------------------------------------

 ---------------------
 remark line goes here
 ---------------------
 Symbolic Z-matrix:
 Charge =  0 Multiplicity = 1

 SCF Done:  E(RHF) =  -935.443801158     A.U. after   15 cycles
 SCF Done:  E(RHF) =  -935.453732595     A.U. after   13 cycles
 SCF Done:  E(RHF) =  -935.454473849     A.U. after   12 cycles
 SCF Done:  E(RHF) =  -935.454556208     A.U. after   12 cycles
 SCF Done:  E(RHF) =  -935.454580546     A.U. after   13 cycles
 SCF Done:  E(RHF) =  -935.454811954     A.U. after   11 cycles
 SCF Done:  E(RHF) =  -935.454879549     A.U. after   12 cycles
 SCF Done:  E(RHF) =  -935.454891181     A.U. after   11 cycles
 SCF Done:  E(RHF) =  -935.454899956     A.U. after   10 cycles
 SCF Done:  E(RHF) =  -935.454912360     A.U. after   11 cycles
 SCF Done:  E(RHF) =  -935.454920431     A.U. after   10 cycles
 SCF Done:  E(RHF) =  -935.454935177     A.U. after   11 cycles
 SCF Done:  E(RHF) =  -935.454954663     A.U. after   10 cycles
 SCF Done:  E(RHF) =  -935.454967220     A.U. after   11 cycles
 SCF Done:  E(RHF) =  -935.454970183     A.U. after   10 cycles
 SCF Done:  E(RHF) =  -935.454971126     A.U. after   10 cycles
 SCF Done:  E(RHF) =  -935.454971447     A.U. after    9 cycles
 SCF Done:  E(RHF) =  -935.454971687     A.U. after   10 cycles
 SCF Done:  E(RHF) =  -935.454971721     A.U. after    8 cycles
 Optimization completed.
    -- Stationary point found.

                         Standard orientation:
 ---------------------------------------------------------------------
 Center     Atomic      Atomic             Coordinates (Angstroms)
 Number     Number       Type             X           Y           Z
 ---------------------------------------------------------------------
      1          1           0        5.116585   -0.140999   -1.106764
      2          6           0        4.112312   -0.484549   -1.309473
      3          1           0        4.127441   -1.544113   -1.536749
      4          1           0        3.739701    0.048372   -2.178883
      5          6           0        3.235311   -0.154423   -0.120769
      6          8           0        3.453884    0.794127    0.583883
      7          1           0       -3.150423    1.858693   -0.731014
      8          1           0       -1.022574    3.062622   -0.389568
      9          6           0       -2.282973    1.342955   -0.365396
     10          6           0       -1.082121    2.011565   -0.171572
     11         17           0       -3.844326   -0.867001   -0.307223
     12          6           0       -2.345059   -0.003617   -0.074274
     13          6           0        0.029903    1.341900    0.302206
     14          1           0        0.955753    1.866457    0.452286
     15          6           0       -1.238681   -0.688526    0.401529
     16          6           0       -0.040126   -0.018794    0.591205
     17          1           0       -1.321486   -1.736534    0.624284
     18          1           0        1.657682   -0.202953    1.888911
     19          6           0        1.182246   -0.761348    1.097311
     20          1           0        0.886532   -1.721740    1.502316
     21          7           0        2.187774   -0.991075    0.076952
     22          1           0        1.993974   -1.677258   -0.616362
 ---------------------------------------------------------------------

 The electronic state is 1-A.
 Alpha  occ. eigenvalues -- -104.82615 -20.52572 -15.59126 -11.35295 -11.30312
 Alpha  occ. eigenvalues --  -11.27497 -11.25225 -11.24828 -11.24739 -11.24536
 Alpha  occ. eigenvalues --  -11.23732 -11.23643 -10.55955  -8.02894  -8.02563
 Alpha  occ. eigenvalues --   -8.02560  -1.39425  -1.24258  -1.19232  -1.12217
 Alpha  occ. eigenvalues --   -1.05597  -1.01466  -0.99758  -0.93792  -0.84000
 Alpha  occ. eigenvalues --   -0.81072  -0.79466  -0.70932  -0.69628  -0.66183
 Alpha  occ. eigenvalues --   -0.65735  -0.64388  -0.62175  -0.59562  -0.58712
 Alpha  occ. eigenvalues --   -0.58487  -0.56810  -0.55306  -0.53955  -0.53229
 Alpha  occ. eigenvalues --   -0.50695  -0.50311  -0.46501  -0.45357  -0.42388
 Alpha  occ. eigenvalues --   -0.39610  -0.34714  -0.33231
 Alpha virt. eigenvalues --    0.12588   0.13111   0.19270   0.20532   0.21697
 Alpha virt. eigenvalues --    0.25907   0.27108   0.28389   0.30133   0.30757
 Alpha virt. eigenvalues --    0.31511   0.32681   0.33689   0.34477   0.35002

 Mulliken charges:
               1
     1  H    0.215413
     2  C   -0.583984
     3  H    0.174405
     4  H    0.201642
     5  C    0.750819
     6  O   -0.614235
     7  H    0.229171
     8  H    0.214957
     9  C   -0.185563
    10  C   -0.193128
    11  Cl  -0.008559
    12  C   -0.129642
    13  C   -0.224321
    14  H    0.250741
    15  C   -0.213749
    16  C    0.030048
    17  H    0.222071
    18  H    0.236390
    19  C   -0.162071
    20  H    0.190170
    21  N   -0.783218
    22  H    0.382646
 Sum of Mulliken charges =   0.00000

 Dipole moment (field-independent basis, Debye):
    X=              0.7181    Y=             -1.7273    Z=             -1.7923  Tot=              2.5906
 Quadrupole moment (field-independent basis, Debye-Ang):
   XX=            -87.7992   YY=            -71.7742   ZZ=            -77.6397
   XY=            -11.4745   XZ=             -7.1667   YZ=             -2.2429

 ESP charges:
               1
     1  H    0.166552
     2  C   -0.551128
     3  H    0.123660
     4  H    0.156307
     5  C    0.821200
     6  O   -0.618010
     7  H    0.125136
     8  H    0.162256
     9  C   -0.021176
    10  C   -0.213529
    11  Cl  -0.121971
    12  C   -0.039935
    13  C   -0.147950
    14  H    0.172837
    15  C   -0.095932
    16  C    0.035895
    17  H    0.135767
    18  H    0.115800
    19  C   -0.002070
    20  H    0.076381
    21  N   -0.642754
    22  H    0.362664
 Sum of ESP charges =   0.00000

 Normal termination of Gaussian 09 at Wed Nov 29 18:18:37 2017.
