 Gaussian 09, Revision D.01,
 Gaussian 09:  ES64L-G09RevD.01 24-Apr-2013

 ------------------------------------------------------------
 #HF/6-31G* SCF=tight Test Pop=MK iop(6/33=2) iop(6/42=6) opt
 ------------------------------------------------------------

 ---------------------
 remark line goes here
 ---------------------
 Symbolic Z-matrix:
 Charge =  0 Multiplicity = 1

 SCF Done:  E(RHF) =  -1034.28766155     A.U. after   15 cycles
 SCF Done:  E(RHF) =  -1034.29968756     A.U. after   13 cycles
 SCF Done:  E(RHF) =  -1034.30048625     A.U. after   12 cycles
 SCF Done:  E(RHF) =  -1034.30084203     A.U. after   13 cycles
 SCF Done:  E(RHF) =  -1034.30073679     A.U. after   15 cycles
 SCF Done:  E(RHF) =  -1034.30194476     A.U. after   13 cycles
 SCF Done:  E(RHF) =  -1034.30254226     A.U. after   14 cycles
 SCF Done:  E(RHF) =  -1034.30267093     A.U. after   12 cycles
 SCF Done:  E(RHF) =  -1034.30270076     A.U. after   12 cycles
 SCF Done:  E(RHF) =  -1034.30278051     A.U. after   12 cycles
 SCF Done:  E(RHF) =  -1034.30285287     A.U. after   11 cycles
 SCF Done:  E(RHF) =  -1034.30286838     A.U. after   12 cycles
 SCF Done:  E(RHF) =  -1034.30287251     A.U. after   11 cycles
 SCF Done:  E(RHF) =  -1034.30287299     A.U. after   11 cycles
 SCF Done:  E(RHF) =  -1034.30287316     A.U. after    9 cycles
 SCF Done:  E(RHF) =  -1034.30287322     A.U. after    8 cycles
 SCF Done:  E(RHF) =  -1034.30287332     A.U. after    9 cycles
 SCF Done:  E(RHF) =  -1034.30287350     A.U. after   10 cycles
 SCF Done:  E(RHF) =  -1034.30287374     A.U. after   11 cycles
 SCF Done:  E(RHF) =  -1034.30287376     A.U. after    9 cycles
 Optimization completed.
    -- Stationary point found.

                         Standard orientation:
 ---------------------------------------------------------------------
 Center     Atomic      Atomic             Coordinates (Angstroms)
 Number     Number       Type             X           Y           Z
 ---------------------------------------------------------------------
      1          1           0        5.222809   -0.859869   -1.088163
      2          6           0        4.208617   -0.585841   -1.341053
      3          1           0        3.806708   -1.295862   -2.054988
      4          1           0        4.225680    0.394622   -1.806234
      5          6           0        3.392571   -0.505992   -0.068453
      6          8           0        3.883157   -0.200742    0.982735
      7          1           0       -3.482794    1.622726   -0.681184
      8          1           0       -1.396370    2.966177   -0.503771
      9          6           0       -2.563329    1.165842   -0.369295
     10          6           0       -1.402683    1.917656   -0.273401
     11         17           0       -3.974532   -1.135879   -0.171876
     12          6           0       -2.522952   -0.177584   -0.056157
     13          6           0       -0.239158    1.306004    0.130009
     14          9           0        0.864773    2.038105    0.222964
     15          6           0       -1.342421   -0.778228    0.349568
     16          6           0       -0.172519   -0.041255    0.449589
     17          1           0       -1.336064   -1.824576    0.591818
     18          1           0        1.603445   -0.087133    1.655590
     19          6           0        1.130396   -0.674562    0.884372
     20          1           0        0.926188   -1.655995    1.299909
     21          7           0        2.069972   -0.769202   -0.212935
     22          1           0        1.728284   -1.058980   -1.100164
 ---------------------------------------------------------------------

 The electronic state is 1-A.
 Alpha  occ. eigenvalues -- -104.83539 -26.32382 -20.52049 -15.58904 -11.34848
 Alpha  occ. eigenvalues --  -11.34103 -11.31252 -11.27902 -11.26783 -11.26751
 Alpha  occ. eigenvalues --  -11.26622 -11.25919 -11.23319 -10.56869  -8.03809
 Alpha  occ. eigenvalues --   -8.03476  -8.03470  -1.64210  -1.39014  -1.24238
 Alpha  occ. eigenvalues --   -1.20746  -1.13544  -1.07370  -1.01873  -1.00584
 Alpha  occ. eigenvalues --   -0.94514  -0.87172  -0.83142  -0.79781  -0.76069
 Alpha  occ. eigenvalues --   -0.73173  -0.70542  -0.69089  -0.66646  -0.65854
 Alpha  occ. eigenvalues --   -0.63769  -0.63033  -0.62473  -0.59877  -0.58559
 Alpha  occ. eigenvalues --   -0.57544  -0.56365  -0.55039  -0.53751  -0.52779
 Alpha  occ. eigenvalues --   -0.50760  -0.47425  -0.46272  -0.41959  -0.39556
 Alpha  occ. eigenvalues --   -0.36516  -0.33952
 Alpha virt. eigenvalues --    0.11096   0.12503   0.18686   0.20548   0.22263
 Alpha virt. eigenvalues --    0.25743   0.26651   0.28157   0.29706   0.30585
 Alpha virt. eigenvalues --    0.31195   0.32220   0.33515   0.34646   0.38363

 Mulliken charges:
               1
     1  H    0.213292
     2  C   -0.581619
     3  H    0.167857
     4  H    0.204835
     5  C    0.751495
     6  O   -0.603366
     7  H    0.240836
     8  H    0.236818
     9  C   -0.171773
    10  C   -0.273348
    11  Cl   0.004352
    12  C   -0.145312
    13  C    0.480987
    14  F   -0.376477
    15  C   -0.194518
    16  C   -0.101678
    17  H    0.238218
    18  H    0.248403
    19  C   -0.108311
    20  H    0.185836
    21  N   -0.800238
    22  H    0.383712
 Sum of Mulliken charges =   0.00000

 Dipole moment (field-independent basis, Debye):
    X=             -1.6129    Y=             -0.5122    Z=             -2.9833  Tot=              3.4298
 Quadrupole moment (field-independent basis, Debye-Ang):
   XX=            -96.3028   YY=            -77.2578   ZZ=            -82.3660
   XY=             -8.3342   XZ=            -11.1495   YZ=             -1.1787

 ESP charges:
               1
     1  H    0.166438
     2  C   -0.560008
     3  H    0.127802
     4  H    0.160086
     5  C    0.817082
     6  O   -0.616466
     7  H    0.134368
     8  H    0.210117
     9  C    0.043388
    10  C   -0.389883
    11  Cl  -0.104324
    12  C   -0.117070
    13  C    0.377988
    14  F   -0.190352
    15  C   -0.017706
    16  C   -0.155007
    17  H    0.140800
    18  H    0.117152
    19  C    0.079241
    20  H    0.059721
    21  N   -0.629059
    22  H    0.345691
 Sum of ESP charges =   0.00000

 Normal termination of Gaussian 09 at Wed Nov 29 20:27:06 2017.
