 Gaussian 09, Revision D.01,
 Gaussian 09:  ES64L-G09RevD.01 24-Apr-2013

 ----------------------------------------------------------------------
 #HF/6-31G* SCF=tight Test Pop=MK iop(6/33=2) iop(6/42=6) opt # iop(6/5
 0=1)
 ----------------------------------------------------------------------

 ---------------------
 remark line goes here
 ---------------------
 Symbolic Z-matrix:
 Charge =  0 Multiplicity = 1

 SCF Done:  E(RHF) =  -554.626834863     A.U. after   15 cycles

 The electronic state is 1-A.
 Alpha  occ. eigenvalues --  -20.51504 -15.58066 -11.34178 -11.26190 -11.23925
 Alpha  occ. eigenvalues --  -11.23863 -11.23797 -11.22974 -11.22956 -11.22887
 Alpha  occ. eigenvalues --  -11.22767 -11.22444 -11.21951  -1.38388  -1.23198
 Alpha  occ. eigenvalues --   -1.16169  -1.06929  -1.04052  -1.00106  -0.97730
 Alpha  occ. eigenvalues --   -0.92768  -0.89570  -0.82003  -0.78957  -0.77833
 Alpha  occ. eigenvalues --   -0.68516  -0.66763  -0.66165  -0.64907  -0.62634
 Alpha  occ. eigenvalues --   -0.61148  -0.58298  -0.58005  -0.57336  -0.57244
 Alpha  occ. eigenvalues --   -0.56075  -0.55778  -0.55231  -0.54758  -0.52823
 Alpha  occ. eigenvalues --   -0.50248  -0.48065  -0.47951  -0.47494  -0.41391
 Alpha  occ. eigenvalues --   -0.38523  -0.33354  -0.31569
 Alpha virt. eigenvalues --    0.13931   0.14346   0.20921   0.22739   0.23964
 Alpha virt. eigenvalues --    0.24960   0.26734   0.27565   0.28498   0.29857
 Alpha virt. eigenvalues --    0.30887   0.31240   0.31987   0.32038   0.33806

 Mulliken charges:
               1
     1  H    0.211282
     2  C   -0.581302
     3  H    0.199513
     4  H    0.169946
     5  C    0.747721
     6  O   -0.609360
     7  H    0.174648
     8  H    0.197692
     9  C   -0.506308
    10  C   -0.225935
    11  H    0.197732
    12  H    0.179767
    13  H    0.174808
    14  C    0.042083
    15  C   -0.224135
    16  H    0.173577
    17  C   -0.243023
    18  C    0.033043
    19  H    0.197373
    20  C   -0.514316
    21  C   -0.039744
    22  H    0.182091
    23  H    0.187718
    24  H    0.215441
    25  H    0.183802
    26  C   -0.103980
    27  N   -0.804532
    28  H    0.384399
 Sum of Mulliken charges =   0.00000

 Dipole moment (field-independent basis, Debye):
    X=              2.5299    Y=             -0.8418    Z=              2.9422  Tot=              3.9706
 Quadrupole moment (field-independent basis, Debye-Ang):
   XX=            -85.3938   YY=            -72.8196   ZZ=            -80.6389
   XY=              0.9805   XZ=             -9.7839   YZ=             -0.2550

 ESP charges:
               1
     1  H    0.170150
     2  C   -0.584789
     3  H    0.159264
     4  H    0.132882
     5  C    0.849824
     6  O   -0.641292
     7  H    0.106797
     8  H    0.173198
     9  C   -0.378950
    10  C   -0.287959
    11  H    0.168087
    12  H    0.108072
    13  H    0.105730
    14  C    0.266239
    15  C   -0.232324
    16  H    0.089074
    17  C   -0.313651
    18  C    0.147773
    19  H    0.175348
    20  C   -0.315373
    21  C   -0.049417
    22  H    0.107300
    23  H    0.091637
    24  H    0.094056
    25  H    0.053841
    26  C    0.084524
    27  N   -0.613382
    28  H    0.333343
 Sum of ESP charges =   0.00000

 Optimization completed.
    -- Stationary point found.

                         Standard orientation:
 ---------------------------------------------------------------------
 Center     Atomic      Atomic             Coordinates (Angstroms)
 Number     Number       Type             X           Y           Z
 ---------------------------------------------------------------------
      1          1           0       -4.853481   -0.145682    1.274547
      2          6           0       -3.943168   -0.728487    1.298531
      3          1           0       -4.217029   -1.778713    1.287837
      4          1           0       -3.402922   -0.521692    2.215042
      5          6           0       -3.136166   -0.422072    0.053915
      6          8           0       -3.662539   -0.203451   -1.003403
      7          1           0        4.696907   -1.576865    0.518933
      8          1           0        4.092237    0.727460    0.809500
      9          6           0        3.753044   -1.894522    0.091414
     10          6           0        3.096218    0.520462    0.458198
     11          1           0        2.460171    2.535931    0.721283
     12          1           0        3.951795   -2.270584   -0.907946
     13          1           0        3.383346   -2.726141    0.683778
     14          6           0        2.757099   -0.758565    0.058782
     15          6           0        2.164879    1.549530    0.408294
     16          1           0        0.331763    3.388831    0.320695
     17          6           0        1.454550   -0.970570   -0.387769
     18          6           0        0.870824    1.339751   -0.036330
     19          1           0        1.168456   -1.959117   -0.708084
     20          6           0       -0.109704    2.490042   -0.093079
     21          6           0        0.514315    0.044452   -0.440705
     22          1           0       -0.403764    2.709764   -1.115347
     23          1           0       -1.015108    2.274368    0.462702
     24          1           0       -1.278472    0.500698   -1.554016
     25          1           0       -0.872603   -1.188363   -1.506623
     26          6           0       -0.886384   -0.277824   -0.916807
     27          7           0       -1.792523   -0.424459    0.211574
     28          1           0       -1.406365   -0.724261    1.077242
 ---------------------------------------------------------------------

 1\1\GINC-LAC-349\FOpt\RHF\6-31G(d)\C11H15N1O1\SONGLIN3\29-Nov-2017\0\\
 #HF/6-31G* SCF=tight Test Pop=MK iop(6/33=2) iop(6/42=6) opt # iop(6/5
 0=1)\\remark line goes here\\0,1\H,-4.853481,-0.145682,1.274547\C,-3.9
 43168,-0.728487,1.298531\H,-4.217029,-1.778713,1.287837\H,-3.402922,-0
 .521692,2.215042\C,-3.136166,-0.422072,0.053915\O,-3.662539,-0.203451,
 -1.003403\H,4.696907,-1.576865,0.518933\H,4.092237,0.72746,0.8095\C,3.
 753044,-1.894522,0.091414\C,3.096218,0.520462,0.458198\H,2.460171,2.53
 5931,0.721283\H,3.951795,-2.270584,-0.907946\H,3.383346,-2.726141,0.68

 Normal termination of Gaussian 09 at Wed Nov 29 20:38:57 2017.
