 Gaussian 09, Revision D.01,
 Gaussian 09:  ES64L-G09RevD.01 24-Apr-2013

 ------------------------------------------------------------
 #HF/6-31G* SCF=tight Test Pop=MK iop(6/33=2) iop(6/42=6) opt
 ------------------------------------------------------------

 ---------------------
 remark line goes here
 ---------------------
 Symbolic Z-matrix:
 Charge =  0 Multiplicity = 1

 SCF Done:  E(RHF) =  -515.582473451     A.U. after   15 cycles
 SCF Done:  E(RHF) =  -515.590243346     A.U. after   13 cycles
 SCF Done:  E(RHF) =  -515.590861792     A.U. after   12 cycles
 SCF Done:  E(RHF) =  -515.591011522     A.U. after   12 cycles
 SCF Done:  E(RHF) =  -515.591031018     A.U. after   13 cycles
 SCF Done:  E(RHF) =  -515.591430242     A.U. after   12 cycles
 SCF Done:  E(RHF) =  -515.591563266     A.U. after   13 cycles
 SCF Done:  E(RHF) =  -515.591573367     A.U. after   11 cycles
 SCF Done:  E(RHF) =  -515.591582941     A.U. after   11 cycles
 SCF Done:  E(RHF) =  -515.591607136     A.U. after   11 cycles
 SCF Done:  E(RHF) =  -515.591677813     A.U. after   11 cycles
 SCF Done:  E(RHF) =  -515.591644339     A.U. after   12 cycles
 SCF Done:  E(RHF) =  -515.591706636     A.U. after   12 cycles
 SCF Done:  E(RHF) =  -515.591730582     A.U. after   12 cycles
 SCF Done:  E(RHF) =  -515.591736503     A.U. after   10 cycles
 SCF Done:  E(RHF) =  -515.591746016     A.U. after   11 cycles
 SCF Done:  E(RHF) =  -515.591748939     A.U. after   11 cycles
 SCF Done:  E(RHF) =  -515.591749435     A.U. after   10 cycles
 SCF Done:  E(RHF) =  -515.591749489     A.U. after    9 cycles
 SCF Done:  E(RHF) =  -515.591749510     A.U. after    8 cycles
 Optimization completed.
    -- Stationary point found.

                         Standard orientation:
 ---------------------------------------------------------------------
 Center     Atomic      Atomic             Coordinates (Angstroms)
 Number     Number       Type             X           Y           Z
 ---------------------------------------------------------------------
      1          1           0       -4.811410    0.148895    1.022338
      2          6           0       -3.818967   -0.186006    1.288061
      3          1           0       -3.865098   -1.199769    1.668799
      4          1           0       -3.441322    0.459660    2.075067
      5          6           0       -2.919794   -0.057488    0.076357
      6          8           0       -3.111305    0.777550   -0.766309
      7          1           0        4.788013   -0.438999    0.801747
      8          1           0        3.595755    1.627265    0.697356
      9          6           0        3.985050   -1.062734    0.426816
     10          6           0        2.710180    1.117883    0.359168
     11          1           0        4.334253   -1.541638   -0.483309
     12          1           0        3.803986   -1.845850    1.157088
     13          1           0        1.551820    2.911821    0.255388
     14          6           0        2.734681   -0.252958    0.171143
     15          6           0        1.551977    1.845907    0.110319
     16          6           0        1.568849   -0.880477   -0.269279
     17          6           0        0.407545    1.212040   -0.326392
     18          1           0        1.577042   -1.947676   -0.422443
     19          6           0        0.408652   -0.169371   -0.518699
     20          1           0       -0.486720    1.775359   -0.524619
     21          1           0       -1.273279   -0.370347   -1.838432
     22          1           0       -0.610974   -1.889666   -1.286493
     23          6           0       -0.849185   -0.876262   -0.984760
     24          7           0       -1.889443   -0.935493    0.026684
     25          1           0       -1.719446   -1.504208    0.824793
 ---------------------------------------------------------------------

 The electronic state is 1-A.
 Alpha  occ. eigenvalues --  -20.51809 -15.58293 -11.34564 -11.26365 -11.23827
 Alpha  occ. eigenvalues --  -11.23494 -11.23085 -11.22780 -11.22560 -11.22401
 Alpha  occ. eigenvalues --  -11.22280 -11.22065  -1.38644  -1.23387  -1.15480
 Alpha  occ. eigenvalues --   -1.05543  -1.03093  -1.00200  -0.93627  -0.92277
 Alpha  occ. eigenvalues --   -0.81878  -0.79108  -0.78416  -0.69310  -0.68361
 Alpha  occ. eigenvalues --   -0.65253  -0.64419  -0.62840  -0.60992  -0.58154
 Alpha  occ. eigenvalues --   -0.57889  -0.57481  -0.56357  -0.55860  -0.55198
 Alpha  occ. eigenvalues --   -0.53182  -0.51535  -0.48801  -0.48129  -0.47904
 Alpha  occ. eigenvalues --   -0.41641  -0.38753  -0.32925  -0.31840
 Alpha virt. eigenvalues --    0.14472   0.14561   0.20760   0.22263   0.24380
 Alpha virt. eigenvalues --    0.26709   0.26916   0.28916   0.30495   0.30595
 Alpha virt. eigenvalues --    0.30725   0.32480   0.33314   0.34162   0.34891

 Mulliken charges:
               1
     1  H    0.213300
     2  C   -0.584094
     3  H    0.172479
     4  H    0.199870
     5  C    0.750484
     6  O   -0.615055
     7  H    0.174909
     8  H    0.195466
     9  C   -0.507523
    10  C   -0.236003
    11  H    0.178593
    12  H    0.174364
    13  H    0.202445
    14  C    0.049589
    15  C   -0.189293
    16  C   -0.257561
    17  C   -0.234963
    18  H    0.188859
    19  C    0.032706
    20  H    0.236221
    21  H    0.234645
    22  H    0.184228
    23  C   -0.161332
    24  N   -0.782003
    25  H    0.379670
 Sum of Mulliken charges =   0.00000

 Dipole moment (field-independent basis, Debye):
    X=              1.4966    Y=             -2.5513    Z=              2.5363  Tot=              3.8964
 Quadrupole moment (field-independent basis, Debye-Ang):
   XX=            -72.1053   YY=            -67.7951   ZZ=            -73.1332
   XY=              5.7940   XZ=             -6.8513   YZ=              1.6642

 ESP charges:
               1
     1  H    0.161708
     2  C   -0.544234
     3  H    0.121122
     4  H    0.152590
     5  C    0.830668
     6  O   -0.622446
     7  H    0.119017
     8  H    0.164515
     9  C   -0.430521
    10  C   -0.311383
    11  H    0.116847
    12  H    0.117487
    13  H    0.139260
    14  C    0.328274
    15  C   -0.091174
    16  C   -0.392652
    17  C   -0.253820
    18  H    0.181975
    19  C    0.129225
    20  H    0.177654
    21  H    0.094023
    22  H    0.046117
    23  C    0.078766
    24  N   -0.679019
    25  H    0.366002
 Sum of ESP charges =   0.00000

 Normal termination of Gaussian 09 at Wed Nov 29 20:17:26 2017.
