 Gaussian 09, Revision D.01,
 Gaussian 09:  ES64L-G09RevD.01 24-Apr-2013

 ------------------------------------------------------------
 #HF/6-31G* SCF=tight Test Pop=MK iop(6/33=2) iop(6/42=6) opt
 ------------------------------------------------------------

 ---------------------
 remark line goes here
 ---------------------
 Symbolic Z-matrix:
 Charge =  0 Multiplicity = 1

 SCF Done:  E(RHF) =  -575.394832445     A.U. after   15 cycles
 SCF Done:  E(RHF) =  -575.405112587     A.U. after   13 cycles
 SCF Done:  E(RHF) =  -575.405724918     A.U. after   12 cycles
 SCF Done:  E(RHF) =  -575.405677776     A.U. after   12 cycles
 SCF Done:  E(RHF) =  -575.405950184     A.U. after   12 cycles
 SCF Done:  E(RHF) =  -575.406075884     A.U. after   12 cycles
 SCF Done:  E(RHF) =  -575.406178585     A.U. after   13 cycles
 SCF Done:  E(RHF) =  -575.406189724     A.U. after   11 cycles
 SCF Done:  E(RHF) =  -575.406194358     A.U. after    9 cycles
 SCF Done:  E(RHF) =  -575.406223999     A.U. after   12 cycles
 SCF Done:  E(RHF) =  -575.406237034     A.U. after   11 cycles
 SCF Done:  E(RHF) =  -575.406237636     A.U. after   11 cycles
 SCF Done:  E(RHF) =  -575.406261613     A.U. after   11 cycles
 SCF Done:  E(RHF) =  -575.406263737     A.U. after    9 cycles
 SCF Done:  E(RHF) =  -575.406264651     A.U. after   10 cycles
 SCF Done:  E(RHF) =  -575.406265025     A.U. after   10 cycles
 SCF Done:  E(RHF) =  -575.406265198     A.U. after    9 cycles
 SCF Done:  E(RHF) =  -575.406265278     A.U. after    9 cycles
 SCF Done:  E(RHF) =  -575.406265289     A.U. after    7 cycles
 Optimization completed.
    -- Stationary point found.

                         Standard orientation:
 ---------------------------------------------------------------------
 Center     Atomic      Atomic             Coordinates (Angstroms)
 Number     Number       Type             X           Y           Z
 ---------------------------------------------------------------------
      1          1           0       -4.760639    0.249687    1.011976
      2          6           0       -3.790510   -0.148237    1.272955
      3          1           0       -3.893524   -1.175300    1.603397
      4          1           0       -3.391690    0.438740    2.094669
      5          6           0       -2.869243   -0.008584    0.079925
      6          8           0       -3.005345    0.872158   -0.725936
      7          1           0        3.668200    1.507799    0.725138
      8          6           0        2.760635    1.050821    0.378122
      9          9           0        3.782425   -1.044550    0.465099
     10          1           0        1.645871    2.861899    0.219530
     11          6           0        2.703869   -0.310859    0.199409
     12          6           0        1.623648    1.794515    0.092947
     13          6           0        1.564716   -0.950620   -0.247028
     14          6           0        0.469127    1.179896   -0.356122
     15          1           0        1.581760   -2.018106   -0.372942
     16          1           0       -0.405210    1.763900   -0.577844
     17          6           0        0.431812   -0.202331   -0.527791
     18          1           0       -1.244817   -0.358269   -1.856404
     19          1           0       -0.615912   -1.896252   -1.316214
     20          6           0       -0.837349   -0.882137   -1.005613
     21          7           0       -1.881580   -0.933261    0.000238
     22          1           0       -1.752280   -1.552353    0.767803
 ---------------------------------------------------------------------

 The electronic state is 1-A.
 Alpha  occ. eigenvalues --  -26.30896 -20.52413 -15.58961 -11.35139 -11.32453
 Alpha  occ. eigenvalues --  -11.27274 -11.25141 -11.24469 -11.23852 -11.23677
 Alpha  occ. eigenvalues --  -11.23524 -11.22998  -1.62644  -1.39264  -1.24079
 Alpha  occ. eigenvalues --   -1.16633  -1.05751  -1.02362  -1.00896  -0.93757
 Alpha  occ. eigenvalues --   -0.84808  -0.83075  -0.79427  -0.73824  -0.70274
 Alpha  occ. eigenvalues --   -0.69043  -0.68959  -0.68221  -0.65830  -0.63526
 Alpha  occ. eigenvalues --   -0.61427  -0.60054  -0.59217  -0.58309  -0.56413
 Alpha  occ. eigenvalues --   -0.54877  -0.52717  -0.51926  -0.50099  -0.49743
 Alpha  occ. eigenvalues --   -0.42250  -0.39481  -0.34567  -0.33099
 Alpha virt. eigenvalues --    0.13086   0.14576   0.20125   0.21665   0.24479
 Alpha virt. eigenvalues --    0.26232   0.28505   0.29933   0.30641   0.31608
 Alpha virt. eigenvalues --    0.32578   0.33844   0.34488   0.36067   0.37840

 Mulliken charges:
               1
     1  H    0.215047
     2  C   -0.584270
     3  H    0.174112
     4  H    0.201180
     5  C    0.751003
     6  O   -0.613713
     7  H    0.222536
     8  C   -0.286906
     9  F   -0.391707
    10  H    0.214034
    11  C    0.480311
    12  C   -0.185890
    13  C   -0.320697
    14  C   -0.237674
    15  H    0.215456
    16  H    0.245670
    17  C    0.037768
    18  H    0.237120
    19  H    0.189489
    20  C   -0.161909
    21  N   -0.783052
    22  H    0.382089
 Sum of Mulliken charges =   0.00000

 Dipole moment (field-independent basis, Debye):
    X=             -0.4356    Y=             -1.6957    Z=              2.0572  Tot=              2.7013
 Quadrupole moment (field-independent basis, Debye-Ang):
   XX=            -76.9474   YY=            -65.0903   ZZ=            -69.9671
   XY=             10.7831   XZ=             -7.6467   YZ=              2.3624

 ESP charges:
               1
     1  H    0.167000
     2  C   -0.558231
     3  H    0.125502
     4  H    0.157311
     5  C    0.831937
     6  O   -0.620369
     7  H    0.190445
     8  C   -0.351203
     9  F   -0.236242
    10  H    0.144275
    11  C    0.453814
    12  C   -0.052400
    13  C   -0.425372
    14  C   -0.294601
    15  H    0.202985
    16  H    0.189345
    17  C    0.165869
    18  H    0.099992
    19  H    0.057973
    20  C    0.054059
    21  N   -0.668500
    22  H    0.366410
 Sum of ESP charges =   0.00000

 Normal termination of Gaussian 09 at Wed Nov 29 18:21:00 2017.
