 Gaussian 09, Revision D.01,
 Gaussian 09:  ES64L-G09RevD.01 24-Apr-2013

 ----------------------------------------------------------------------
 #HF/CEP-31G SCF=tight Test Pop=MK iop(6/33=2) iop(6/42=6) opt #Pop=Rea
 dRadii
 ----------------------------------------------------------------------

 ---------------------
 remark line goes here
 ---------------------
 Symbolic Z-matrix:
 Charge =  0 Multiplicity = 1

 SCF Done:  E(RHF) =  -91.5916923540     A.U. after   15 cycles
 SCF Done:  E(RHF) =  -91.5977461248     A.U. after   14 cycles
 SCF Done:  E(RHF) =  -91.5982516138     A.U. after   13 cycles
 SCF Done:  E(RHF) =  -91.5981493168     A.U. after   13 cycles
 SCF Done:  E(RHF) =  -91.5983525932     A.U. after   12 cycles
 SCF Done:  E(RHF) =  -91.5983718016     A.U. after   12 cycles
 SCF Done:  E(RHF) =  -91.5983748311     A.U. after   11 cycles
 SCF Done:  E(RHF) =  -91.5983755911     A.U. after   11 cycles
 SCF Done:  E(RHF) =  -91.5983763816     A.U. after   11 cycles
 SCF Done:  E(RHF) =  -91.5983770622     A.U. after   11 cycles
 SCF Done:  E(RHF) =  -91.5859484534     A.U. after   16 cycles
 SCF Done:  E(RHF) =  -91.5981882400     A.U. after   14 cycles
 SCF Done:  E(RHF) =  -91.5985998845     A.U. after   10 cycles
 SCF Done:  E(RHF) =  -91.5986223636     A.U. after   12 cycles
 SCF Done:  E(RHF) =  -91.5986281224     A.U. after   12 cycles
 SCF Done:  E(RHF) =  -91.5986291907     A.U. after   11 cycles
 SCF Done:  E(RHF) =  -91.5986295267     A.U. after   11 cycles
 SCF Done:  E(RHF) =  -91.5986295847     A.U. after    9 cycles
 SCF Done:  E(RHF) =  -91.5986295979     A.U. after    8 cycles
 SCF Done:  E(RHF) =  -91.5986295989     A.U. after    6 cycles
 Optimization completed.
    -- Stationary point found.

                         Standard orientation:
 ---------------------------------------------------------------------
 Center     Atomic      Atomic             Coordinates (Angstroms)
 Number     Number       Type             X           Y           Z
 ---------------------------------------------------------------------
      1          1           0        6.228909   -1.248547   -0.890207
      2          6           0        5.220639   -1.111095   -1.272976
      3          1           0        4.813490   -2.075875   -1.565994
      4          1           0        5.282022   -0.466457   -2.146190
      5          6           0        4.381322   -0.417437   -0.206562
      6          8           0        4.700662    0.699869    0.244834
      7          1           0       -1.749733    2.347445   -0.828413
      8          1           0        0.506632    3.363730   -0.638626
      9          6           0       -0.936797    1.780285   -0.413092
     10          6           0        0.348703    2.352498   -0.303399
     11         53           0       -3.068226   -0.426341   -0.113304
     12          6           0       -1.131819    0.461124    0.033814
     13          6           0        1.417945    1.619831    0.241212
     14          1           0        2.395543    2.060253    0.320324
     15          6           0       -0.070038   -0.285492    0.582394
     16          6           0        1.214351    0.291882    0.683436
     17          1           0       -0.237197   -1.290535    0.927708
     18          1           0        2.978741    0.108787    1.907281
     19          6           0        2.374182   -0.517221    1.264163
     20          1           0        1.991897   -1.343351    1.856062
     21          7           0        3.267531   -1.079701    0.234392
     22          1           0        3.016713   -1.946694   -0.190200
 ---------------------------------------------------------------------

 The electronic state is 1-A.
 Alpha  occ. eigenvalues --   -1.40364  -1.25359  -1.17754  -1.07202  -1.04430
 Alpha  occ. eigenvalues --   -1.02458  -0.95076  -0.90481  -0.84225  -0.80915
 Alpha  occ. eigenvalues --   -0.79994  -0.70810  -0.70167  -0.65867  -0.65258
 Alpha  occ. eigenvalues --   -0.64310  -0.62112  -0.59702  -0.57649  -0.57114
 Alpha  occ. eigenvalues --   -0.56214  -0.54909  -0.52933  -0.51667  -0.49966
 Alpha  occ. eigenvalues --   -0.45348  -0.42670  -0.39934  -0.39383  -0.37291
 Alpha  occ. eigenvalues --   -0.34643  -0.32481
 Alpha virt. eigenvalues --    0.09072   0.10626   0.11098   0.17351   0.22343
 Alpha virt. eigenvalues --    0.25177   0.26388   0.26582   0.28481   0.28827
 Alpha virt. eigenvalues --    0.30013   0.30841   0.31005   0.32046   0.32426

 Mulliken charges:
               1
     1  H    0.148514
     2  C   -0.276569
     3  H    0.100510
     4  H    0.147298
     5  C   -0.026665
     6  O   -0.307715
     7  H    0.270085
     8  H    0.260692
     9  C   -0.054356
    10  C   -0.361317
    11  I    0.199402
    12  C   -0.762065
    13  C   -0.026531
    14  H    0.328016
    15  C    0.114844
    16  C   -0.118919
    17  H    0.293721
    18  H    0.196594
    19  C   -0.276190
    20  H    0.174661
    21  N   -0.389618
    22  H    0.365606
 Sum of Mulliken charges =   0.00000

 Dipole moment (field-independent basis, Debye):
    X=              0.4744    Y=             -3.0225    Z=             -1.1517  Tot=              3.2691
 Quadrupole moment (field-independent basis, Debye-Ang):
   XX=            -97.4011   YY=            -78.8902   ZZ=            -86.3567
   XY=            -16.7552   XZ=             -6.0385   YZ=             -2.4124

 ESP charges:
               1
     1  H    0.200134
     2  C   -0.675059
     3  H    0.148434
     4  H    0.206187
     5  C    0.930904
     6  O   -0.736941
     7  H    0.083441
     8  H    0.180815
     9  C    0.168062
    10  C   -0.333484
    11  I   -0.062962
    12  C   -0.285751
    13  C   -0.058745
    14  H    0.171208
    15  C    0.056389
    16  C    0.003782
    17  H    0.106265
    18  H    0.140941
    19  C   -0.110374
    20  H    0.109652
    21  N   -0.596017
    22  H    0.353118
 Sum of ESP charges =   0.00000

 1\1\GINC-CSN-003\FOpt\RHF\CEP-31G\C9H10I1N1O1\SONGLIN3\29-Nov-2017\0\\
 #HF/CEP-31G SCF=tight Test Pop=MK iop(6/33=2) iop(6/42=6) opt #Pop=Rea
 dRadii\\remark line goes here\\0,1\H,18.5969392441,-12.4374103922,20.1
 615035282\C,17.974518324,-12.1223389832,20.9953715752\H,18.4416257219,
 -11.2750241124,21.4916559444\H,17.906509212,-12.954297035,21.691825080
 6\C,16.5791599393,-11.8021897116,20.4725580395\O,15.8968504508,-12.659
 595315,19.8780680839\H,10.9172434739,-10.7320059138,23.9965479052\H,11
 .682000322,-12.6738123009,22.6532050357\C,11.6798344176,-10.6037315302

 Normal termination of Gaussian 09 at Wed Nov 29 18:31:32 2017.
