 Gaussian 09, Revision D.01,
 Gaussian 09:  ES64L-G09RevD.01 24-Apr-2013

 ----------------------------------------------------------------------
 #HF/6-31G* SCF=tight Test Pop=MK iop(6/33=2) iop(6/42=6) opt # iop(6/5
 0=1)
 ----------------------------------------------------------------------

 ---------------------
 remark line goes here
 ---------------------
 Symbolic Z-matrix:
 Charge =  0 Multiplicity = 1

 SCF Done:  E(RHF) =  -554.626296769     A.U. after   15 cycles

 The electronic state is 1-A.
 Alpha  occ. eigenvalues --  -20.51808 -15.58289 -11.34560 -11.26360 -11.23530
 Alpha  occ. eigenvalues --  -11.23464 -11.23084 -11.22795 -11.22760 -11.22595
 Alpha  occ. eigenvalues --  -11.22416 -11.22087 -11.21667  -1.38641  -1.23380
 Alpha  occ. eigenvalues --   -1.15582  -1.06816  -1.03716  -1.00242  -0.98402
 Alpha  occ. eigenvalues --   -0.92395  -0.86588  -0.81727  -0.78786  -0.78003
 Alpha  occ. eigenvalues --   -0.69285  -0.68376  -0.65324  -0.64749  -0.63348
 Alpha  occ. eigenvalues --   -0.61391  -0.59589  -0.58765  -0.57788  -0.57580
 Alpha  occ. eigenvalues --   -0.55850  -0.54595  -0.53734  -0.52113  -0.51730
 Alpha  occ. eigenvalues --   -0.49750  -0.48279  -0.47744  -0.46844  -0.41638
 Alpha  occ. eigenvalues --   -0.38734  -0.32938  -0.31809
 Alpha virt. eigenvalues --    0.14202   0.14705   0.20707   0.22142   0.23790
 Alpha virt. eigenvalues --    0.26545   0.26654   0.28569   0.29664   0.29782
 Alpha virt. eigenvalues --    0.30673   0.30818   0.32427   0.33450   0.33855

 Mulliken charges:
               1
     1  H    0.213276
     2  C   -0.584080
     3  H    0.172443
     4  H    0.199862
     5  C    0.750548
     6  O   -0.615041
     7  H    0.234462
     8  H    0.184242
     9  C   -0.161502
    10  N   -0.781816
    11  H    0.379487
    12  H    0.170488
    13  H    0.195301
    14  C   -0.340038
    15  C   -0.231042
    16  H    0.172640
    17  H    0.159871
    18  H    0.202482
    19  H    0.161179
    20  C    0.049739
    21  C   -0.470769
    22  C   -0.190320
    23  C   -0.260418
    24  C   -0.234910
    25  H    0.165602
    26  H    0.188977
    27  H    0.236596
    28  C    0.032738
 Sum of Mulliken charges =   0.00000

 Dipole moment (field-independent basis, Debye):
    X=              1.9479    Y=             -3.0813    Z=              1.3379  Tot=              3.8831
 Quadrupole moment (field-independent basis, Debye-Ang):
   XX=            -82.4167   YY=            -75.5481   ZZ=            -77.8640
   XY=              9.0847   XZ=             -4.8311   YZ=              2.7054

 ESP charges:
               1
     1  H    0.164445
     2  C   -0.549638
     3  H    0.121405
     4  H    0.154970
     5  C    0.820355
     6  O   -0.619215
     7  H    0.105784
     8  H    0.053218
     9  C    0.037972
    10  N   -0.654939
    11  H    0.363873
    12  H   -0.009360
    13  H    0.141140
    14  C    0.126655
    15  C   -0.167562
    16  H   -0.001653
    17  H    0.034801
    18  H    0.142983
    19  H    0.025716
    20  C   -0.013490
    21  C   -0.128714
    22  C   -0.154762
    23  C   -0.246346
    24  C   -0.181589
    25  H    0.036680
    26  H    0.160216
    27  H    0.164586
    28  C    0.072468
 Sum of ESP charges =   0.00000

 Optimization completed.
    -- Stationary point found.

                         Standard orientation:
 ---------------------------------------------------------------------
 Center     Atomic      Atomic             Coordinates (Angstroms)
 Number     Number       Type             X           Y           Z
 ---------------------------------------------------------------------
      1          1           0       -5.036518   -0.634125    1.216233
      2          6           0       -3.998244   -0.928289    1.272704
      3          1           0       -3.922871   -2.009265    1.248129
      4          1           0       -3.596171   -0.577227    2.218201
      5          6           0       -3.240641   -0.263943    0.142259
      6          8           0       -3.583272    0.795064   -0.310712
      7          1           0       -1.780176    0.331921   -1.855664
      8          1           0       -0.939164   -1.196038   -1.952066
      9          6           0       -1.230431   -0.396890   -1.280270
     10          7           0       -2.154298   -0.941082   -0.300833
     11          1           0       -1.858074   -1.739382    0.213242
     12          1           0        3.780536   -1.071483   -1.243074
     13          1           0        3.139825    1.827391    0.914114
     14          6           0        3.717804   -0.547537   -0.293790
     15          6           0        2.267846    1.373436    0.475105
     16          1           0        4.520494    0.183588   -0.292162
     17          1           0        3.172281   -2.310516    0.854745
     18          1           0        0.963878    2.946691    1.099428
     19          1           0        4.904663   -2.036778    0.750057
     20          6           0        2.386059    0.167297   -0.198406
     21          6           0        3.941682   -1.544847    0.849381
     22          6           0        1.037280    2.006921    0.581072
     23          6           0        1.239383   -0.386945   -0.763498
     24          6           0       -0.090669    1.444157    0.015943
     25          1           0        3.916499   -1.044265    1.811936
     26          1           0        1.319712   -1.319019   -1.299260
     27          1           0       -1.042440    1.939048    0.090529
     28          6           0        0.003897    0.232727   -0.664310
 ---------------------------------------------------------------------

 1\1\GINC-LAC-349\FOpt\RHF\6-31G(d)\C11H15N1O1\SONGLIN3\29-Nov-2017\0\\
 #HF/6-31G* SCF=tight Test Pop=MK iop(6/33=2) iop(6/42=6) opt # iop(6/5
 0=1)\\remark line goes here\\0,1\H,5.036518,-0.634125,-1.216233\C,3.99
 8244,-0.928289,-1.272704\H,3.922871,-2.009265,-1.248129\H,3.596171,-0.
 577227,-2.218201\C,3.240641,-0.263943,-0.142259\O,3.583272,0.795064,0.
 310712\H,1.780176,0.331921,1.855664\H,0.939164,-1.196038,1.952066\C,1.
 230431,-0.39689,1.28027\N,2.154298,-0.941082,0.300833\H,1.858074,-1.73
 9382,-0.213242\H,-3.780536,-1.071483,1.243074\H,-3.139825,1.827391,-0.

 Normal termination of Gaussian 09 at Wed Nov 29 20:36:12 2017.
