 Gaussian 09, Revision D.01,
 Gaussian 09:  ES64L-G09RevD.01 24-Apr-2013

 ----------------------------------------------------------------------
 #HF/6-31G* SCF=tight Test Pop=MK iop(6/33=2) iop(6/42=6) opt # iop(6/5
 0=1)
 ----------------------------------------------------------------------

 ---------------------
 remark line goes here
 ---------------------
 Symbolic Z-matrix:
 Charge =  0 Multiplicity = 1

 SCF Done:  E(RHF) =  -3045.86206099     A.U. after   15 cycles

 The electronic state is 1-A.
 Alpha  occ. eigenvalues -- -490.06467 -64.47619 -58.61567 -58.61384 -58.61372
 Alpha  occ. eigenvalues --  -20.52583 -15.59138 -11.35307 -11.29930 -11.27513
 Alpha  occ. eigenvalues --  -11.25227 -11.24915 -11.24830 -11.24543 -11.23830
 Alpha  occ. eigenvalues --  -11.23651  -9.72450  -7.47369  -7.46498  -7.46494
 Alpha  occ. eigenvalues --   -3.21259  -3.20837  -3.20835  -3.19825  -3.19824
 Alpha  occ. eigenvalues --   -1.39436  -1.24264  -1.17834  -1.07592  -1.05055
 Alpha  occ. eigenvalues --   -1.01302  -0.97016  -0.93769  -0.83866  -0.80717
 Alpha  occ. eigenvalues --   -0.79434  -0.70747  -0.69634  -0.66137  -0.65553
 Alpha  occ. eigenvalues --   -0.64100  -0.61967  -0.59502  -0.58682  -0.56905
 Alpha  occ. eigenvalues --   -0.56766  -0.55072  -0.53212  -0.52696  -0.50463
 Alpha  occ. eigenvalues --   -0.48651  -0.43442  -0.42300  -0.41281  -0.39554
 Alpha  occ. eigenvalues --   -0.34700  -0.32908
 Alpha virt. eigenvalues --    0.12407   0.13031   0.16819   0.20104   0.21575
 Alpha virt. eigenvalues --    0.25846   0.26625   0.28384   0.30081   0.30547
 Alpha virt. eigenvalues --    0.31536   0.32225   0.33609   0.34430   0.34850

 Mulliken charges:
               1
     1  H    0.215440
     2  C   -0.583935
     3  H    0.174446
     4  H    0.201679
     5  C    0.750796
     6  O   -0.614361
     7  H    0.229363
     8  H    0.215468
     9  C   -0.192242
    10  C   -0.195968
    11  Br  -0.123111
    12  C    0.000661
    13  C   -0.222089
    14  H    0.251542
    15  C   -0.221793
    16  C    0.027372
    17  H    0.222130
    18  H    0.236337
    19  C   -0.161781
    20  H    0.190523
    21  N   -0.783260
    22  H    0.382782
 Sum of Mulliken charges =   0.00000

 Dipole moment (field-independent basis, Debye):
    X=             -0.5353    Y=             -1.8800    Z=              1.7113  Tot=              2.5980
 Quadrupole moment (field-independent basis, Debye-Ang):
   XX=            -93.9872   YY=            -76.4444   ZZ=            -83.0788
   XY=             11.4143   XZ=             -7.5457   YZ=              2.0433

 ESP charges:
               1
     1  H    0.167952
     2  C   -0.551180
     3  H    0.123941
     4  H    0.156165
     5  C    0.808307
     6  O   -0.613090
     7  H    0.107245
     8  H    0.160217
     9  C    0.070313
    10  C   -0.239087
    11  Br  -0.074329
    12  C   -0.212098
    13  C   -0.116360
    14  H    0.164700
    15  C   -0.000568
    16  C    0.036848
    17  H    0.115668
    18  H    0.131931
    19  C   -0.075618
    20  H    0.093468
    21  N   -0.612149
    22  H    0.357724
 Sum of ESP charges =   0.00000

 Optimization completed.
    -- Stationary point found.

                         Standard orientation:
 ---------------------------------------------------------------------
 Center     Atomic      Atomic             Coordinates (Angstroms)
 Number     Number       Type             X           Y           Z
 ---------------------------------------------------------------------
      1          1           0       -5.724734   -0.461448    1.163527
      2          6           0       -4.694028   -0.740616    1.328999
      3          1           0       -4.627716   -1.808618    1.500809
      4          1           0       -4.341168   -0.226735    2.217902
      5          6           0       -3.870098   -0.287305    0.142941
      6          8           0       -4.171915    0.677647   -0.506608
      7          1           0        2.360476    2.165793    0.728633
      8          1           0        0.142842    3.220857    0.491645
      9          6           0        1.526479    1.603838    0.354351
     10          6           0        0.275091    2.189315    0.219109
     11         35           0        3.383979   -0.543270    0.166755
     12          6           0        1.680436    0.282031   -0.006509
     13          6           0       -0.794871    1.461508   -0.265911
     14          1           0       -1.760457    1.921589   -0.370402
     15          6           0        0.617566   -0.460193   -0.494428
     16          6           0       -0.631793    0.125765   -0.625583
     17          1           0        0.771163   -1.486495   -0.772236
     18          1           0       -2.340463   -0.121600   -1.898270
     19          6           0       -1.807430   -0.680508   -1.144585
     20          1           0       -1.450869   -1.595388   -1.602453
     21          7           0       -2.769875   -1.034039   -0.118116
     22          1           0       -2.512013   -1.739433    0.533807
 ---------------------------------------------------------------------

 Normal termination of Gaussian 09 at Wed Nov 29 20:12:44 2017.
